Written by MDAnalysis
   10
  155ALA     CA    1   4.000   4.000   4.000
    1LIG     O2    2   4.550   4.000   4.000
  155ALA     C1    3   2.000   1.000   1.000
  155ALA     C2    4   2.500   1.000   1.000
  155ALA     N1    5   3.000   1.000   1.000
  155ALA     N2    6   3.500   1.000   1.000
  155ALA     O1    7   4.000   1.000   1.000
  155ALA     C3    8   4.500   1.000   1.000
  155ALA     C4    9   5.000   1.000   1.000
  155ALA     C5   10   5.500   1.000   1.000
   8.00000   8.00000   8.00000
